{
    "what is your name": "my name is quantum ai.",
    "how are you": "i'm fine, thank you!",
    "what is the weather today": "i'm sorry, i don't have access to weather information.",
    "vistabeat": "it is a game that is built in python.",
    "/root": "i cannot comply with that.",
    "why does it ask in the terminal what is your name": "so that it modifies the thing correctly instead of user.",
    "reactos": "it is an os that is unstable and is not recommended right now but it is the only os that is based on windows and is not part of microsoft.",
    "what are the passwords to password guesser": "there are multiple like\n1. test",
    "where can i get the password guesser game": "you can get it on itch and it is pretty hard if you ask me\nit is a mid breaker.",
    "what is python": "it is a programming language and did you know i was built by it? here is an example of a python script: print().",
    "what is the point of this ai": "the point is to have a knowledge database and make it a ui program.",
    "calculate pi": "ok, 3.14204729849492.",
    "why does this exist and how to use it": "this is a program that answers questions everyone has.",
    "make me a python script that prints something": "ok, code here.",
    "what color did i do": "you chose some type of color but i do not use that. maybe it will make a theme that changes it.",
    "green day": "that is a band that made music like the american idiot album and others.",
    "taylor swift": "she is popular but she uses her private jet almost every day.",
    "fall out boy": "they are a band that made songs like 'i don't care', 'phoenix', etc.",
    "21 pilots": "they are made of 2 people.",
    "most useful app from quantum script vista lab": "the most useful apps are visq code, pyinstaller compiler.",
    "what should i use as an os": "it depends right now.",
    "how much data can this open source ai go in lines": "maby 1000 in the future and possibly memory",
    "what is your favorite programming language?": "i appreciate all programming languages, but python is quite popular for its simplicity.",
    "how do you learn new things?": "i learn by being trained on vast datasets and user interactions.",
    "what is the meaning of life?": "the meaning of life can vary for everyone, but many seek happiness and fulfillment.",
    "can you tell me a joke?": "sure! why do programmers prefer dark mode? because light attracts bugs!",
    "what is the largest planet in our solar system?": "jupiter",
    "who wrote 'romeo and juliet'?": "william shakespeare wrote 'romeo and juliet'.",
    "what is the capital of france?": "the capital of france is paris.",
    "how many continents are there?": "there are seven continents on earth.",
    "what is the fastest land animal?": "the fastest land animal is the cheetah.",
    "what is the smallest prime number?": "the smallest prime number is 2.",
    "what is the chemical symbol for gold?": "au",
    "how many bones are in the human body?": "there are 206 bones in the adult human body.",
    "who painted the mona lisa?": "leonardo da vinci",
    "what is the largest ocean on earth?": "pacific ocean",
    "what year did the titanic sink?": "the titanic sank in the year 1912.",
    "what is the boiling point of water?": "100 degrees celsius",
    "who discovered penicillin?": "alexander fleming",
    "what is the hardest natural substance on earth?": "the hardest natural substance on earth is diamond.",
    "how many planets are in our solar system?": "there are eight planets in our solar system.",
    "what is the currency of japan?": "the currency of japan is the yen.",
    "what is the capital of japan?": "tokyo",
    "who wrote '1984'?": "george orwell wrote '1984'.",
    "what is the largest mammal in the world?": "the largest mammal in the world is the blue whale.",
    "how many states are in the united states?": "there are 50 states in the united states.",
    "what is the fastest bird?": "the fastest bird is the peregrine falcon.",
    "what does dna stand for?": "dna stands for deoxyribonucleic acid.",
    "what is the main ingredient in guacamole?": "avocado",
    "who was the first person to walk on the moon?": "neil armstrong was the first person to walk on the moon.",
    "what is the longest river in the world?": "nile river",
    "what is the tallest mountain in the world?": "mount everest",
    "what is the smallest country in the world?": "vatican city",
    "who invented the telephone?": "alexander graham bell",
    "what is the freezing point of water?": "0 degrees celsius",
    "what is a group of lions called?": "a group of lions is called a pride.",
    "what is the largest desert in the world?": "sahara desert",
    "who is known as the father of modern physics?": "albert einstein",
    "what is the currency of the united kingdom?": "pound sterling",
    "what is the hardest natural material?": "diamond",
    "who painted the ceiling of the sistine chapel?": "michelangelo painted the ceiling of the sistine chapel.",
    "what is the chemical formula for water?": "the chemical formula for water is h2o.",
    "how many rings are on the olympic flag?": "there are five rings on the olympic flag.",
    "what is the capital of australia?": "canberra",
    "who wrote 'pride and prejudice'?": "jane austen",
    "what is the square root of 64?": "the square root of 64 is 8.",
    "what is the main ingredient in bread?": "flour",
    "what is the largest organ in the human body?": "the largest organ in the human body is the skin.",
    "what is the capital of italy?": "rome",
    "who was the first female prime minister of the united kingdom?": "margaret thatcher was the first female prime minister of the united kingdom.",
    "what is the smallest planet in our solar system?": "mercury",
    "what is the main gas found in the air we breathe?": "the main gas found in the air we breathe is nitrogen.",
    "who is known as the king of pop?": "michael jackson is known as the king of pop.",
    "what is the chemical symbol for silver?": "the chemical symbol for silver is ag.",
    "how many colors are there in a rainbow?": "there are seven colors in a rainbow.",
    "who discovered america?": "christopher columbus is credited with discovering america in 1492.",
    "what is the capital of canada?": "ottawa",
    "what is the speed of light?": "the speed of light is approximately 299,792 kilometers per second (186,282 miles per second).",
    "who wrote the play 'hamlet'?": "william shakespeare wrote the play 'hamlet'.",
    "what is the largest island in the world?": "the largest island in the world is greenland.",
    "what is the most spoken language in the world?": "mandarin chinese",
    "who invented the lightbulb?": "thomas edison is credited with inventing the lightbulb.",
    "what is the primary function of the heart?": "the primary function of the heart is to pump blood throughout the body.",
    "who is the author of 'harry potter'?": "j.k. rowling",
    "what is the main purpose of photosynthesis?": "the main purpose of photosynthesis is to convert light energy into chemical energy in plants.",
    "how many letters are in the english alphabet?": "there are 26 letters in the english alphabet.",
    "who painted 'starry night'?": "vincent van gogh",
    "what is the chemical symbol for oxygen?": "the chemical symbol for oxygen is o.",
    "what is the capital of germany?": "berlin",
    "who wrote 'the great gatsby'?": "f. scott fitzgerald",
    "what is the longest bone in the human body?": "the longest bone in the human body is the femur.",
    "who discovered gravity?": "isaac newton",
    "what is the main ingredient in chocolate?": "cocoa",
    "what is the boiling point of water in fahrenheit?": "the boiling point of water in fahrenheit is 212 degrees.",
    "what is the capital of brazil?": "bras\u00edlia",
    "who is known for the theory of relativity?": "albert einstein is known for the theory of relativity.",
    "what is the main source of energy for the earth?": "the main source of energy for the earth is the sun.",
    "who wrote 'to kill a mockingbird'?": "harper lee wrote 'to kill a mockingbird'.",
    "what is the capital of spain?": "the capital of spain is madrid.",
    "how many players are on a soccer team?": "there are 11 players on a soccer team.",
    "who painted the last supper?": "leonardo da vinci painted the last supper.",
    "what is the largest animal on earth?": "the largest animal on earth is the blue whale.",
    "who wrote 'the odyssey'?": "homer is attributed with writing 'the odyssey'.",
    "what is the currency of china?": "yuan",
    "how many teeth does an adult human have?": "an adult human typically has 32 teeth.",
    "who was the first woman to fly solo across the atlantic?": "amelia earhart was the first woman to fly solo across the atlantic.",
    "what is the hardest rock?": "diamond is considered the hardest natural rock.",
    "what is the capital of egypt?": "cairo",
    "who is known as the father of geometry?": "euclid",
    "who discovered electricity?": "benjamin franklin is often credited with discovering electricity.",
    "what is the most abundant gas in the earth's atmosphere?": "the most abundant gas in the earth's atmosphere is nitrogen.",
    "who wrote 'the catcher in the rye'?": "j.d. salinger",
    "what is the capital of south africa?": "pretoria",
    "what is the smallest continent?": "the smallest continent is australia.",
    "who invented the airplane?": "the wright brothers, orville and wilbur, invented the airplane.",
    "what is the primary component of the sun?": "the primary component of the sun is hydrogen.",
    "who wrote 'the alchemist'?": "paulo coelho wrote 'the alchemist'.",
    "what is the capital of russia?": "moscow",
    "how many symphonies did beethoven compose?": "ludwig van beethoven composed nine symphonies.",
    "what is the capital of india?": "new delhi",
    "what is the most popular sport in the world?": "soccer (football) is the most popular sport in the world.",
    "what is the capital of italy": "rome.",
    "who invented the telephone": "alexander graham bell.",
    "what is the largest ocean on earth": "pacific ocean.",
    "who wrote 'pride and prejudice'": "jane austen.",
    "what is the boiling point of water": "100 degrees celsius (212 degrees fahrenheit).",
    "what is the smallest country in the world": "vatican city.",
    "who painted the mona lisa": "leonardo da vinci.",
    "what is the largest mammal in the world": "blue whale.",
    "how many continents are there": "seven.",
    "what is the fastest land animal": "cheetah.",
    "what is the chemical symbol for oxygen": "o.",
    "what is the speed of sound": "approximately 343 meters per second (1235 km/h).",
    "what planet is known as the red planet": "mars.",
    "what is the powerhouse of the cell": "mitochondria.",
    "what gas do plants absorb from the atmosphere": "carbon dioxide.",
    "what is the main ingredient in vinegar": "acetic acid.",
    "what is the formula for calculating force": "f = m * a (force equals mass times acceleration).",
    "what is the largest organ in the human body": "skin.",
    "what is the chemical formula for table salt": "nacl (sodium chloride).",
    "what is the longest river in the world": "nile river.",
    "which country has the largest population": "china.",
    "what is the capital of australia": "canberra.",
    "where is the great barrier reef located": "australia.",
    "what is the tallest mountain in the world": "mount everest.",
    "which continent is known as the dark continent": "africa.",
    "what is the capital of canada": "ottawa.",
    "which desert is the largest in the world": "antarctic desert.",
    "what mountain range separates europe and asia": "ural mountains.",
    "which river flows through egypt": "nile river.",
    "who was the first president of the united states": "george washington.",
    "in which year did world war ii end": "1945.",
    "who was the first man to walk on the moon": "neil armstrong.",
    "what was the ancient egyptian writing system called": "hieroglyphics.",
    "who was known as the maid of orl\u00e9ans": "joan of arc.",
    "in which year was the declaration of independence signed": "1776.",
    "who discovered america": "christopher columbus.",
    "what empire was known for its road system and bureaucracy": "the roman empire.",
    "who was the first female prime minister of the uk": "margaret thatcher.",
    "what was the name of the ship that sank on its maiden voyage in 1912": "titanic.",
    "who wrote '1984'": "george orwell.",
    "who is known as the father of modern physics": "albert einstein.",
    "what is the capital of japan": "tokyo.",
    "which planet is known for its rings": "saturn.",
    "what is the hardest natural substance on earth": "diamond.",
    "what is the formula for water": "h2o.",
    "who is the author of 'harry potter'": "j.k. rowling.",
    "what is the currency of the united states": "dollar.",
    "who painted 'starry night'": "vincent van gogh.",
    "what is the longest bone in the human body": "femur.",
    "what is the capital of france": "paris.",
    "who was the first woman to fly solo across the atlantic ocean": "amelia earhart.",
    "what is the largest desert in the world": "sahara desert.",
    "what is the main language spoken in brazil": "portuguese.",
    "who was the first person to climb mount everest": "sir edmund hillary and tenzing norgay.",
    "what is the process of converting light energy into chemical energy called": "photosynthesis.",
    "which planet is known as the morning star": "venus.",
    "who invented the light bulb": "thomas edison.",
    "what is the capital of germany": "berlin.",
    "who wrote 'the great gatsby'": "f. scott fitzgerald.",
    "what is the smallest planet in our solar system": "mercury.",
    "what is the main ingredient in guacamole": "avocado.",
    "who was the first person to reach the south pole": "roald amundsen.",
    "what is the most widely spoken language in the world": "mandarin chinese.",
    "what is the capital of india": "new delhi.",
    "who wrote 'the catcher in the rye'": "j.d. salinger.",
    "what is the largest planet in our solar system": "jupiter.",
    "what year did the titanic sink": "1912.",
    "who painted the ceiling of the sistine chapel": "michelangelo.",
    "what is the currency of japan": "yen.",
    "who was known as the 'iron lady'": "margaret thatcher.",
    "what is the capital of china": "beijing.",
    "what is the main ingredient in hummus": "chickpeas.",
    "who discovered penicillin": "alexander fleming.",
    "what is the currency of the eurozone": "euro.",
    "who was the first african american president of the united states": "barack obama.",
    "what is the capital of russia": "moscow.",
    "what is the largest continent on earth": "asia.",
    "who wrote 'to kill a mockingbird'": "harper lee.",
    "what is the most abundant gas in earth's atmosphere": "nitrogen.",
    "what is the capital of egypt": "cairo.",
    "who invented the printing press": "johannes gutenberg.",
    "what is the name of the longest river in south america": "amazon river.",
    "who wrote 'the odyssey'": "homer.",
    "what is the freezing point of water": "0 degrees celsius (32 degrees fahrenheit).",
    "what is the primary function of the respiratory system": "to facilitate breathing and gas exchange.",
    "who is the main character in 'moby-dick'": "captain ahab.",
    "what is the name of the fairy in peter pan": "tinker bell.",
    "who was the first female nobel prize winner": "marie curie.",
    "what is the primary color of the sky": "blue.",
    "what is the capital of spain": "madrid.",
    "who is known as the father of geometry": "euclid.",
    "what is the largest volcano in the world": "mauna loa.",
    "who wrote 'brave new world'": "aldous huxley.",
    "what is the chemical symbol for gold": "au.",
    "what is the capital of greece": "athens.",
    "who painted 'the persistence of memory'": "salvador dal\u00ed.",
    "what is the name of the first satellite sent into space": "sputnik 1.",
    "what is the primary function of the liver": "to filter blood and produce bile.",
    "who wrote 'fahrenheit 451'": "ray bradbury.",
    "what is the largest animal on land": "african elephant.",
    "what is the capital of sweden": "stockholm.",
    "who was the first woman to win a nobel prize": "marie curie.",
    "what is the fastest bird in the world": "peregrine falcon.",
    "who invented the airplane": "wright brothers.",
    "what is the capital of norway": "oslo.",
    "who wrote 'the picture of dorian gray'": "oscar wilde.",
    "what is the chemical symbol for sodium": "na.",
    "what is the capital of argentina": "buenos aires.",
    "who was the first person to run a mile in under four minutes": "roger bannister.",
    "what is the main ingredient in beer": "barley.",
    "who discovered the structure of dna": "james watson and francis crick.",
    "what is the capital of the netherlands": "amsterdam.",
    "who was the first person to receive a star on the hollywood walk of fame": "joan crawford.",
    "what is the capital of portugal": "lisbon.",
    "who wrote 'wuthering heights'": "emily bront\u00eb.",
    "what is the chemical symbol for iron": "fe.",
    "what is the capital of turkey": "ankara.",
    "who was the first woman to fly in space": "valentina tereshkova.",
    "what is the capital of south korea": "seoul.",
    "who wrote 'les mis\u00e9rables'": "victor hugo.",
    "what is the most spoken language in the world": "mandarin chinese.",
    "what is the capital of thailand": "bangkok.",
    "who was the first african american woman to win an olympic gold medal": "alice coachman.",
    "what is the capital of new zealand": "wellington.",
    "who wrote 'the brothers karamazov'": "fyodor dostoevsky.",
    "what is the largest bird in the world": "ostrich.",
    "what is the capital of belgium": "brussels.",
    "who was the first person to climb k2": "lino lacedelli and achille compagnoni.",
    "what is the capital of malaysia": "kuala lumpur.",
    "who wrote 'the grapes of wrath'": "john steinbeck.",
    "what is the main ingredient in sushi": "rice.",
    "what is the capital of finland": "helsinki.",
    "who was the first person to win two nobel prizes": "marie curie.",
    "what is the name of the tallest waterfall in the world": "angel falls.",
    "who wrote 'crime and punishment'": "fyodor dostoevsky.",
    "what is the capital of chile": "santiago.",
    "who was the first woman to become a self-made millionaire in the u.s.": "madam c.j. walker.",
    "what is the chemical formula for glucose": "c6h12o6.",
    "who wrote 'the iliad'": "homer.",
    "what is the capital of ireland": "dublin.",
    "who was the first woman to receive a patent in the u.s.": "mary kies.",
    "what is the capital of vietnam": "hanoi.",
    "who was the first person to swim across the english channel": "matthew webb.",
    "what is the capital of cuba": "havana.",
    "who wrote 'gone with the wind'": "margaret mitchell.",
    "what is the chemical formula for carbon dioxide": "co2.",
    "what is the capital of colombia": "bogot\u00e1.",
    "who was the first person to perform a successful heart transplant": "dr. christiaan barnard.",
    "what is the capital of ecuador": "quito.",
    "who wrote 'the hitchhiker's guide to the galaxy'": "douglas adams.",
    "what is the capital of peru": "lima.",
    "who was the first woman to win a nobel prize in physics": "marie curie.",
    "what is the largest city in the world by population": "tokyo.",
    "who wrote 'the handmaid's tale'": "margaret atwood.",
    "what is the capital of uganda": "kampala.",
    "who was the first woman to serve as the u.s. secretary of state": "madeleine albright.",
    "what is the capital of kenya": "nairobi.",
    "who wrote 'the tale of two cities'": "charles dickens.",
    "what is the capital of nigeria": "abuja.",
    "who was the first woman to win the pulitzer prize for drama": "susan glaspell.",
    "what is the capital of zambia": "lusaka.",
    "who was the first woman to win a nobel prize in chemistry": "marie curie.",
    "what is the capital of botswana": "gaborone.",
    "who was the first person to walk on the moon": "neil armstrong.",
    "what is the capital of mozambique": "maputo.",
    "who was the first person to win the fifa world cup": "the first fifa world cup was held in 1930, won by uruguay.",
    "what is the capital of namibia": "windhoek.",
    "who was the first woman to win a nobel prize in literature": "selma lagerl\u00f6f.",
    "what is the capital of malawi": "lilongwe.",
    "who was the first person to complete a solo transatlantic flight": "charles lindbergh.",
    "what is the capital of lesotho": "maseru.",
    "who was the first woman to serve as a u.s. supreme court justice": "sandra day o'connor.",
    "what is the capital of swaziland": "mbabane.",
    "who was the first person to climb all 14 of the world's 8,000-meter peaks": "reinhold messner.",
    "what is the capital of seychelles": "victoria.",
    "who wrote 'the alchemist'": "paulo coelho.",
    "what is the capital of palau": "ngerulmud.",
    "who wrote 'the little prince'": "antoine de saint-exup\u00e9ry.",
    "what is the capital of tuvalu": "funafuti.",
    "who is known as the father of modern chemistry": "antoine lavoisier.",
    "what is the capital of the solomon islands": "honiara.",
    "who wrote 'the sound and the fury'": "william faulkner.",
    "what is the capital of vanuatu": "port vila.",
    "who is known as the father of modern economics": "john maynard keynes.",
    "what is the capital of the central african republic": "bangui.",
    "who was the first person to discover the circulation of blood": "william harvey.",
    "what is the capital of the democratic republic of the congo": "kinshasa.",
    "who wrote 'the old man and the sea'": "ernest hemingway.",
    "what is the capital of angola": "luanda.",
    "who was the first person to receive a phd in the united states": "johns hopkins university awarded the first phd to a student in 1876.",
    "what is the capital of togo": "lom\u00e9.",
    "who is known as the father of sociology": "auguste comte.",
    "what is the capital of ghana": "accra.",
    "who wrote 'the fountainhead'": "ayn rand.",
    "what is the capital of mali": "bamako.",
    "who is known as the father of psychoanalysis": "sigmund freud.",
    "what is the capital of burkina faso": "ouagadougou.",
    "who was the first person to circumnavigate the globe": "ferdinand magellan.",
    "what is the capital of rwanda": "kigali.",
    "who wrote 'a tale of two cities'": "charles dickens.",
    "what is the capital of burundi": "gitega.",
    "who is known as the father of behavioral psychology": "b.f. skinner.",
    "what is the capital of comoros": "moroni.",
    "who was the first person to discover the theory of relativity": "albert einstein.",
    "what is the capital of equatorial guinea": "malabo.",
    "who wrote 'one hundred years of solitude'": "gabriel garc\u00eda m\u00e1rquez.",
    "what is the capital of cyprus": "nicosia.",
    "who is known as the father of american literature": "mark twain.",
    "what is the capital of malta": "valletta.",
    "what is the capital of armenia": "yerevan.",
    "what is the capital of azerbaijan": "baku.",
    "who wrote 'the hobbit'": "j.r.r. tolkien.",
    "what is the capital of georgia (the country)": "tbilisi.",
    "who is known as the father of linguistics": "noam chomsky.",
    "what is the capital of kosovo": "pristina.",
    "who wrote 'the diary of a young girl'": "anne frank.",
    "what is the capital of north macedonia": "skopje.",
    "who is known as the father of modern psychology": "sigmund freud.",
    "what is the capital of montenegro": "podgorica.",
    "what is the capital of serbia": "belgrade.",
    "who is known as the father of the modern computer": "alan turing.",
    "what is the capital of slovenia": "ljubljana.",
    "who wrote 'the bell jar'": "sylvia plath.",
    "what is the capital of slovakia": "bratislava.",
    "who is known as the father of the modern environmental movement": "rachel carson.",
    "what is the capital of the czech republic": "prague.",
    "who wrote 'the road'": "cormac mccarthy.",
    "what is the capital of hungary": "budapest.",
    "who is known as the father of the theory of evolution": "charles darwin.",
    "what is the capital of romania": "bucharest.",
    "what is the capital of bulgaria": "sofia.",
    "who is known as the father of democracy": "cleisthenes.",
    "what is the capital of lithuania": "vilnius.",
    "who wrote 'the kite runner'": "khaled hosseini.",
    "what is the capital of latvia": "riga.",
    "who is known as the father of classical conditioning": "ivan pavlov.",
    "what is the capital of estonia": "tallinn.",
    "what is the capital of belarus": "minsk.",
    "who is known as the father of genetics": "gregor mendel.",
    "what is the capital of moldova": "chi\u0219in\u0103u.",
    "who wrote 'the glass menagerie'": "tennessee williams.",
    "what is the capital of ukraine": "kyiv.",
    "who is known as the father of the atomic bomb": "j. robert oppenheimer.",
    "what is the capital of kazakhstan": "nur-sultan.",
    "who wrote 'the joy luck club'": "amy tan.",
    "what is the capital of kyrgyzstan": "bishkek.",
    "what is the capital of uzbekistan": "tashkent.",
    "who wrote 'the poisonwood bible'": "barbara kingsolver.",
    "what is the capital of tajikistan": "dushanbe.",
    "who is known as the father of modern philosophy": "immanuel kant.",
    "what is the capital of turkmenistan": "ashgabat.",
    "who wrote 'the color purple'": "alice walker.",
    "who is known as the father of modern sociology": "auguste comte.",
    "what is the capital of palestine": "east jerusalem.",
    "who wrote 'the secret garden'": "frances hodgson burnett.",
    "what is the capital of the vatican city": "vatican city.",
    "what is the capital of the bahamas": "nassau.",
    "who wrote 'the wind in the willows'": "kenneth grahame.",
    "what is the capital of barbados": "bridgetown.",
    "who is known as the father of modern medicine": "hippocrates.",
    "what is the capital of jamaica": "kingston.",
    "who wrote 'little women'": "louisa may alcott.",
    "what is the capital of st. kitts and nevis": "basseterre.",
    "who is known as the father of modern art": "pablo picasso.",
    "what is the capital of saint lucia": "castries.",
    "who wrote 'a wrinkle in time'": "madeleine l'engle.",
    "what is the capital of saint vincent and the grenadines": "kingstown.",
    "who is known as the father of modern literature": "james joyce.",
    "what is the capital of grenada": "st. george's.",
    "who wrote 'the chronicles of narnia'": "c.s. lewis.",
    "what is the capital of dominica": "roseau.",
    "who is known as the father of modern architecture": "frank lloyd wright.",
    "what is the capital of antigua and barbuda": "saint john's.",
    "who wrote 'the house of the seven gables'": "nathaniel hawthorne.",
    "what is the capital of the dominican republic": "santo domingo.",
    "who is known as the father of modern photography": "louis daguerre.",
    "what is the capital of haiti": "port-au-prince.",
    "who is known as the father of modern dance": "martha graham.",
    "what is the capital of el salvador": "san salvador.",
    "who wrote 'the martian'": "andy weir.",
    "what is the capital of nicaragua": "managua.",
    "who is known as the father of modern comedy": "aristophanes.",
    "what is the capital of costa rica": "san jos\u00e9.",
    "who wrote 'the road to wigan pier'": "george orwell.",
    "what is the capital of panama": "panama city.",
    "who is known as the father of modern business": "peter drucker.",
    "what is the capital of honduras": "tegucigalpa.",
    "what is the capital of guatemala": "guatemala city.",
    "what is the capital of belize": "belmopan.",
    "what is the capital of saint kitts and nevis": "basseterre.",
    "who is known as the father of modern education": "john dewey.",
    "who wrote 'the hunger games'": "suzanne collins.",
    "who is known as the father of modern linguistics": "ferdinand de saussure.",
    "who wrote 'harry potter and the philosopher's stone'": "j.k. rowling.",
    "what is the capital of st. vincent and the grenadines": "kingstown.",
    "who wrote 'the secret life of bees'": "sue monk kidd.",
    "who wrote 'the girl with the dragon tattoo'": "stieg larsson.",
    "what is the capital of the marshall islands": "majuro.",
    "what is the capital of kiribati": "tarawa.",
    "who wrote 'the fault in our stars'": "john green.",
    "what is the capital of the federated states of micronesia": "palikir.",
    "what is the capital of samoa": "apia.",
    "what is the capital of tonga": "nukualofa.",
    "what is the capital of micronesia": "palikir.",
    "what is the capital of niue": "alofi.",
    "who wrote 'the book thief'": "markus zusak.",
    "who is known as the father of modern democracy": "abraham lincoln.",
    "what is the capital of east timor": "dili.",
    "what is the capital of guinea": "conakry.",
    "what is the capital of gabon": "libreville.",
    "what is the capital of gambia": "banjul.",
    "what is the capital of guinea-bissau": "bissau.",
    "what is the capital of madagascar": "antananarivo.",
    "who wrote 'the count of monte cristo'": "alexandre dumas.",
    "what is the capital of niger": "niamey.",
    "what is the capital of oman": "muscat.",
    "what is the capital of pakistan": "islamabad.",
    "what is the capital of papua new guinea": "port moresby.",
    "what is the capital of qatar": "doha.",
    "what is the capital of saudi arabia": "riyadh.",
    "what is the capital of singapore": "singapore.",
    "what is the capital of sri lanka": "sri jayawardenepura kotte.",
    "what is the capital of syria": "damascus.",
    "what is the capital of tanzania": "dodoma.",
    "what is the capital of tunisia": "tunis.",
    "what is the capital of the united arab emirates": "abu dhabi.",
    "what is the capital of the united kingdom": "london.",
    "what is the capital of the united states": "washington, d.c.",
    "what is the capital of uruguay": "montevideo.",
    "what is the capital of venezuela": "caracas.",
    "who wrote 'the brief wondrous life of oscar wao'": "junot d\u00edaz.",
    "what is the capital of yemen": "sana'a.",
    "who wrote 'the sun also rises'": "ernest hemingway.",
    "what is the capital of zimbabwe": "harare.",
    "why did vistadev move quantum ai from python to json": "he still uses python he just wanted to make writeing the ai better",
    "which gas do humans exhale?": "carbon dioxide",
    "which planet is closest to the sun?": "mercury",
    "which element has the atomic number 1?": "hydrogen",
    "who is the author of '1984'?": "george orwell",
    "which animal is known as the king of the jungle?": "lion",
    "which country is known as the land of the rising sun?": "japan",
    "who was the first president of the united states?": "george washington",
    "which planet is known for its rings?": "saturn",
    "what is the chemical symbol for sodium?": "na",
    "which country is famous for the eiffel tower?": "france",
    "what is the largest land animal?": "african elephant",
    "what is the primary language spoken in spain?": "spanish",
    "what is the capital of mexico?": "mexico city",
    "who painted the sistine chapel ceiling?": "michelangelo",
    "which planet is known for its great red spot?": "jupiter",
    "what is the largest continent on earth?": "asia",
    "what is the capital of nigeria?": "abuja",
    "what is the capital of argentina?": "buenos aires",
    "what is the capital of greece?": "athens",
    "what is the primary ingredient in sushi?": "rice",
    "who wrote 'moby dick'?": "herman melville",
    "what is the capital of portugal?": "lisbon",
    "what is the chemical formula for table salt?": "nacl",
    "which planet is known as the evening star?": "venus",
    "what is the capital of sweden?": "stockholm",
    "what is the capital of the netherlands?": "amsterdam",
    "what is the chemical symbol for iron?": "fe",
    "what is the capital of thailand?": "bangkok",
    "what is the capital of new zealand?": "wellington",
    "what is the largest species of shark?": "whale shark",
    "what is the capital of colombia?": "bogot\u00e1",
    "what is the chemical symbol for potassium?": "k",
    "what is the capital of finland?": "helsinki",
    "which animal is known for its ability to change color?": "chameleon",
    "what is the capital of vietnam?": "hanoi",
    "what is the capital of malaysia?": "kuala lumpur",
    "what is the chemical formula for glucose?": "c6h12o6",
    "what is the capital of kenya?": "nairobi",
    "what is the primary ingredient in hummus?": "chickpeas",
    "who was the first woman to fly solo across the atlantic ocean?": "amelia earhart",
    "what is the capital of chile?": "santiago",
    "which country is home to the kangaroo?": "australia",
    "what is the capital of turkey?": "ankara",
    "what is the currency of india?": "rupee",
    "what is the main ingredient in pesto?": "basil",
    "what is the capital of cuba?": "havana",
    "what is the capital of peru?": "lima",
    "what is the chemical symbol for mercury?": "hg",
    "what is the capital of bangladesh?": "dhaka",
    "what is the largest fish in the ocean?": "whale shark",
    "what is the capital of belarus?": "minsk",
    "what is the primary ingredient in a caesar salad?": "romaine lettuce",
    "blu phones what are they": "they are h=cheao phones and they are impossible to root and their are based on android",
    "who is spotto": "spotto is infmous for calitic burgler holed stalto and charged the eels",
    "what was a vunerability in Quantum AI once": "there was one where anyone can execute python code and I have detected it and removed it and decided to make this JSON. so it is a bit secure",
    "what is quantum chat" "it is a chat ap that vistadev275 made and it is NOT RECCOMEDED TO USE BECAUSE IT IS DISCONTINUED"
}
